CRYSTAL
PRIMVEC
     0.0000000000    0.0000000000    0.0000000000
     0.0000000000    0.0000000000    0.0000000000
     0.0000000000    0.0000000000    0.0000000000
PRIMCOORD
 0 1
